 #Transient Diffusion System
 8920 atoms
 2 atom types
  
 0.0 48 xlo xhi
 0.0 17.959393 ylo yhi
 0.0 22.004317 zlo zhi
  
 Atoms
  
 1 1 9.9204137 15.310671 14.841247
 2 1 9.9448946 5.6770951 11.67371
 3 1 6.7862157 12.682007 14.936159
 4 1 1.682749 8.8941309 9.2305409
 5 1 39.429012 4.5116444 7.4574865
 6 1 5.6178626 6.0372344 11.743432
 7 1 1.9079877 0.3265289 9.0181845
 8 1 2.3583717 4.8950038 7.5643251
 9 1 3.6143335 4.9614545 6.4792387
 10 1 38.570124 12.38383 12.884788
 11 1 5.1330864 5.7193229 12.678655
 12 1 3.0712562 1.2043869 16.835792
 13 1 4.1259262 3.5383009 4.6712935
 14 1 9.3859505 0.9714816 20.222422
 15 1 3.591222 0.0523810 19.789518
 16 1 41.212499 13.950634 3.0703012
 17 1 6.426504 7.7436107 13.522499
 18 1 37.192581 7.6876593 20.7541
 19 1 11.05592 16.969874 19.819442
 20 1 10.089655 9.0107045 20.087258
 21 1 7.1805407 13.903879 17.431838
 22 1 40.902052 12.96208 10.492837
 23 1 47.956638 2.8282241 11.773836
 24 1 6.7097408 7.7314575 0.5018191
 25 1 44.578956 16.741092 2.7124706
 26 1 0.1497595 10.361501 8.6668317
 27 1 47.642786 15.293796 7.4667347
 28 1 37.357683 9.4540548 11.656554
 29 1 47.718516 11.180555 21.613924
 30 1 42.545746 13.085242 0.5558223
 31 1 1.1797584 4.6849327 8.0015229
 32 1 11.080967 13.658371 12.410884
 33 1 3.0632777 13.369792 4.9938877
 34 1 47.238087 9.0749124 5.555682
 35 1 39.403642 2.5313507 14.872959
 36 1 9.0516351 2.4608217 14.540982
 37 1 8.4021847 16.465182 4.6712963
 38 1 3.8398673 0.4169816 15.98712
 39 1 2.8263166 1.5799565 15.636166
 40 1 43.914383 3.2598383 8.5926109
 41 1 7.4888581 11.450973 9.3969185
 42 1 2.8587559 16.994879 10.070683
 43 1 41.326165 14.528373 15.032906
 44 1 2.8566548 17.047076 4.8030773
 45 1 45.976252 13.889817 9.3390523
 46 1 44.519973 8.5230716 20.769197
 47 1 0.8569213 12.093386 14.384056
 48 1 7.2169502 3.4111619 5.6858747
 49 1 0.7438833 0.7246558 16.283518
 50 1 43.9003 4.5160638 8.4570293
 51 1 7.8488843 10.556722 13.248429
 52 1 2.4353332 14.087839 5.8037181
 53 1 10.397831 6.810457 16.874486
 54 1 45.428083 13.266811 12.199766
 55 1 47.708914 6.6622563 6.672233
 56 1 44.55343 2.1414242 11.022321
 57 1 5.7707362 5.9332374 13.872567
 58 1 5.3832278 10.6221 14.977772
 59 1 10.714428 8.293502 13.75554
 60 1 44.421804 7.3417993 1.3999617
 61 1 6.397205 0.5955009 6.9486016
 62 1 5.5434281 11.291734 6.3339763
 63 1 9.1367996 8.6043244 6.1985485
 64 1 3.7144454 12.145886 21.359406
 65 1 2.4280533 2.3431458 18.866398
 66 1 40.885347 12.018314 4.4946053
 67 1 9.9101579 5.3532309 1.7070062
 68 1 45.034456 0.9289133 13.111547
 69 1 5.8802643 9.4696198 1.5159775
 70 1 44.629553 1.246848 2.5353585
 71 1 9.2058991 1.5813781 15.42186
 72 1 2.4214628 7.2965803 9.0144138
 73 1 3.9755175 0.9311527 9.1301231
 74 1 2.2839222 10.071545 20.73861
 75 1 39.281089 3.7207828 4.2643019
 76 1 43.060389 16.759263 12.122449
 77 1 37.289388 13.297 12.345152
 78 1 45.396791 2.5840539 3.6245345
 79 1 44.375723 12.210575 7.9566285
 80 1 0.9284245 2.6833135 7.0454281
 81 1 5.3986305 13.842336 5.3585445
 82 1 1.319081 12.538316 9.1337862
 83 1 45.013928 17.851901 4.0240668
 84 1 4.5425837 12.84671 20.95725
 85 1 2.2451301 4.5925542 9.7590599
 86 1 46.514292 0.6704616 9.4474796
 87 1 4.4189728 2.61987 14.893356
 88 1 40.804351 0.0522762 6.7513237
 89 1 47.49354 12.013525 6.4464198
 90 1 42.88639 6.2714527 15.551106
 91 1 6.8026751 12.776343 10.09666
 92 1 0.7484776 1.5344525 0.2960991
 93 1 8.0632736 2.443589 4.6643513
 94 1 4.8434622 10.108232 12.170792
 95 1 6.4329099 1.6167265 13.68234
 96 1 8.6636728 11.963277 14.96137
 97 1 37.448282 13.144318 1.8300159
 98 1 9.2393541 1.3188342 12.970705
 99 1 4.8916335 7.7311922 0.8157370
 100 1 40.956892 15.080327 0.0048289
 101 1 41.705997 17.286033 21.559855
 102 1 10.980038 11.085633 21.92553
 103 1 11.095111 17.402409 10.81796
 104 1 0.7236654 11.338612 0.5303706
 105 1 8.1168044 14.94446 0.2769812
 106 1 46.11206 16.215832 9.7027641
 107 1 44.680772 7.8610959 6.7786661
 108 1 42.427059 5.5422666 7.3816395
 109 1 3.107294 15.304113 10.609908
 110 1 47.847387 17.620727 7.2682761
 111 1 3.3366332 17.211352 0.3440659
 112 1 5.623122 7.6543306 9.2806647
 113 1 5.1357113 14.117393 18.853479
 114 1 8.557562 9.3549623 20.489811
 115 1 7.1762354 9.9658565 18.820188
 116 1 4.6128228 1.6564764 1.5522257
 117 1 45.350617 14.057963 4.7563822
 118 1 5.161126 11.245727 21.023477
 119 1 0.0350676 0.1920230 21.446223
 120 1 43.675958 17.125873 9.1284542
 121 1 2.6861462 6.2085142 5.1503824
 122 1 39.229415 17.65453 16.268564
 123 1 4.7951395 17.586337 0.1661625
 124 1 46.689007 11.722049 9.1014884
 125 1 38.875308 8.6565023 21.67114
 126 1 2.7957765 4.0130513 17.609099
 127 1 46.742426 17.002742 15.363031
 128 1 47.251445 1.931642 17.082885
 129 1 40.153231 7.9465841 19.413672
 130 1 45.316968 5.0424245 15.201904
 131 1 40.464218 16.748026 4.9656648
 132 1 39.689701 10.738507 4.2333893
 133 1 8.9649997 17.444234 9.6166684
 134 1 39.949594 5.9201116 6.0921969
 135 1 9.2784559 16.302678 11.029209
 136 1 42.951215 2.7772291 16.747789
 137 1 39.447875 17.317401 12.456037
 138 1 39.196105 8.5255007 13.364424
 139 1 6.0150822 9.5111704 13.77351
 140 1 4.1609039 7.0960573 11.976537
 141 1 8.5985612 14.850578 1.7687473
 142 1 44.125472 1.4383077 12.391989
 143 1 46.971582 17.180157 3.6891969
 144 1 0.5010196 8.6793209 6.3577348
 145 1 2.9220029 6.904574 2.5113061
 146 1 3.5229933 16.285391 17.514249
 147 1 2.066465 3.9506193 16.61104
 148 1 5.6169555 7.558772 16.460114
 149 1 0.3093467 6.9605025 4.8232886
 150 1 43.42296 3.2920005 11.691324
 151 1 38.283613 8.2749283 11.486276
 152 1 46.649872 3.3372471 2.0299526
 153 1 4.3555793 5.016658 14.790075
 154 1 42.12571 1.0966068 20.541875
 155 1 6.8654535 9.8056254 1.1369195
 156 1 47.113166 15.3498 12.888148
 157 1 39.038458 14.195017 13.928305
 158 1 46.823544 5.6729221 8.8039791
 159 1 5.6461534 9.631197 6.3337928
 160 1 3.2008231 15.839121 7.7832679
 161 1 1.0339769 4.155741 2.950001
 162 1 38.283598 13.123842 11.108858
 163 1 42.653325 3.7055563 8.827276
 164 1 8.3725819 7.1225376 10.966535
 165 1 10.89043 1.8126334 0.3898944
 166 1 41.170976 10.494353 17.50286
 167 1 1.2153417 5.9567869 18.361338
 168 1 4.4352041 13.385614 1.2582329
 169 1 38.50289 15.802251 10.524246
 170 1 46.303038 14.507996 11.354146
 171 1 46.610819 12.744752 14.54535
 172 1 42.121722 5.0732886 4.8737694
 173 1 44.457904 10.07153 7.9851036
 174 1 4.6020846 2.0997781 19.608588
 175 1 7.5167302 12.22622 5.6960305
 176 1 10.318583 9.8468175 17.902702
 177 1 0.2880313 13.234628 5.3055844
 178 1 3.178031 7.719294 16.88598
 179 1 40.556386 5.4998069 8.5377889
 180 1 9.1245982 0.6122903 3.1333404
 181 1 45.638277 9.3101354 3.3414898
 182 1 39.054112 17.946246 14.080512
 183 1 41.528409 10.655322 14.386848
 184 1 43.227836 10.263967 1.2094212
 185 1 0.1723446 0.4632647 18.508378
 186 1 5.5720819 7.5383229 17.655504
 187 1 42.114145 8.1391612 17.202575
 188 1 9.1782489 8.6509982 3.4300013
 189 1 6.2598349 1.4461449 9.7026214
 190 1 47.736709 8.2399378 12.125347
 191 1 5.0361421 13.474136 15.883045
 192 1 4.6893174 12.00876 10.732951
 193 1 4.2751782 6.1822075 9.3591133
 194 1 39.965838 7.4664439 3.5114987
 195 1 10.799257 7.875018 19.751199
 196 1 8.8368063 8.0751976 21.296082
 197 1 8.0813299 14.853669 20.597814
 198 1 44.909736 0.3495620 17.638731
 199 1 3.2257315 13.57459 9.5665741
 200 1 44.349442 11.672845 5.0680125
 201 1 39.646796 0.6663483 3.7492739
 202 1 2.2667201 10.131308 18.840559
 203 1 7.4354384 4.0247717 18.884313
 204 1 45.631233 11.050997 19.711871
 205 1 46.067721 3.6654319 6.9677511
 206 1 38.487726 9.3793838 20.720191
 207 1 41.41181 7.1142414 15.933039
 208 1 38.863375 12.795783 7.2317053
 209 1 9.1953204 5.6641038 7.6794792
 210 1 47.643266 2.2925355 8.4251496
 211 1 6.2303396 1.6286584 15.037525
 212 1 7.7415537 16.971207 12.407465
 213 1 47.194371 0.9120575 3.690738
 214 1 47.26853 2.2809638 14.440015
 215 1 42.623047 13.661529 19.453438
 216 1 38.908828 13.791125 5.7741308
 217 1 5.4588117 3.8216979 1.3176939
 218 1 7.85799 5.5889489 13.66727
 219 1 7.1606947 7.5541471 19.177314
 220 1 4.5301314 1.4628352 12.516279
 221 1 2.0233929 17.576298 0.6999285
 222 1 37.066132 7.2024253 7.7050697
 223 1 37.630787 12.685138 20.423064
 224 1 40.766362 1.8828864 2.3023967
 225 1 0.1047800 15.358066 1.4980648
 226 1 9.9687882 8.3619825 17.274326
 227 1 3.7064342 17.877813 3.5476269
 228 1 41.877099 0.8874170 3.38101
 229 1 6.8888333 16.992268 14.374732
 230 1 9.0015274 13.614812 11.710164
 231 1 45.4235 6.7343058 3.3740192
 232 1 2.1160175 15.73873 0.3661781
 233 1 7.2507061 11.939148 12.564919
 234 1 1.8565209 16.861865 2.4163173
 235 1 5.3182828 10.949731 8.0826724
 236 1 1.3517759 13.544143 0.7770686
 237 1 8.0804077 3.5826555 20.203276
 238 1 37.838431 5.9649897 20.802199
 239 1 6.3257312 13.022338 16.732709
 240 1 40.739171 12.164572 2.2967094
 241 1 10.505501 4.6529789 15.693098
 242 1 2.2408376 17.182232 20.84932
 243 1 38.372562 0.7672721 0.3151265
 244 1 42.255113 1.0464485 10.744996
 245 1 40.583882 7.7432933 16.66427
 246 1 45.822872 9.5945938 4.9635188
 247 1 41.114267 6.2594464 13.715223
 248 1 46.940327 10.705381 12.21613
 249 1 42.637587 8.9423984 16.359402
 250 1 41.305261 11.701951 6.0814013
 251 1 42.840755 5.6917949 21.856069
 252 1 46.265756 9.0361977 2.1197266
 253 1 46.356692 0.1368236 17.711167
 254 1 37.412203 14.385645 11.293364
 255 1 9.4329851 14.125126 15.296367
 256 1 4.1359505 11.669629 0.2696327
 257 1 39.694953 3.2971858 11.654217
 258 1 8.8914513 8.7825634 16.266475
 259 1 8.4997307 5.7891175 19.789176
 260 1 41.472996 7.5616751 19.336944
 261 1 6.5603265 2.7993219 1.4940887
 262 1 41.669889 3.0344492 1.332413
 263 1 47.195597 11.596241 16.432678
 264 1 11.070339 14.567398 5.7859955
 265 1 7.1707565 4.3974993 11.39508
 266 1 40.698595 1.9378917 11.311088
 267 1 4.1636142 15.723944 4.0166292
 268 1 1.5930613 12.025917 20.907951
 269 1 44.592704 14.088199 16.678952
 270 1 37.88443 8.9715367 16.493852
 271 1 5.945407 13.890101 7.6605216
 272 1 38.373804 16.376805 20.70425
 273 1 37.606077 14.45298 19.579846
 274 1 42.610818 14.810947 1.9132288
 275 1 0.1841643 17.632283 17.027671
 276 1 45.47177 7.6848528 18.550868
 277 1 7.3423439 16.240184 7.5047763
 278 1 40.237743 4.0633758 8.6010121
 279 1 6.124637 7.1643575 5.5789977
 280 1 0.1727283 8.2124064 16.43483
 281 1 39.784538 11.221528 16.296041
 282 1 2.6017536 15.880715 20.816137
 283 1 5.1131387 9.9488265 15.83975
 284 1 39.489006 17.316571 2.203664
 285 1 8.2672538 14.845664 17.459098
 286 1 6.5159597 7.019129 7.3027777
 287 1 38.659496 0.2245913 12.82782
 288 1 3.9766484 1.1353785 3.4292909
 289 1 4.2700345 2.2489643 6.5570721
 290 1 9.1272954 10.751351 6.2923885
 291 1 5.6496522 2.5249776 21.628542
 292 1 46.450442 17.178721 6.8256292
 293 1 38.130213 11.292562 14.055
 294 1 37.85339 1.3626925 18.028183
 295 1 43.651491 13.227139 1.5402768
 296 1 10.077916 10.26985 9.6829794
 297 1 10.839293 17.599637 1.5061617
 298 1 37.583591 7.4149379 10.377407
 299 1 42.599915 14.237733 6.7144768
 300 1 44.116636 3.0414391 2.1205012
 301 1 1.0064281 5.8909261 9.8561968
 302 1 0.5910937 6.8596451 12.049173
 303 1 45.158163 8.5237088 19.840504
 304 1 3.2431865 10.787565 9.5446672
 305 1 7.0486821 16.664168 9.0405587
 306 1 5.1363611 15.005697 4.5863377
 307 1 2.5456886 5.3032759 1.6298189
 308 1 39.714952 1.3670784 20.393583
 309 1 45.700277 4.1131164 3.5355318
 310 1 37.823437 0.7170949 14.081944
 311 1 3.7547504 0.8643989 10.532237
 312 1 45.475521 0.7916995 4.3422194
 313 1 46.207658 7.4837996 9.3860771
 314 1 47.166736 7.9801548 18.307222
 315 1 40.4459 16.443076 15.739372
 316 1 6.6989889 4.838543 3.4462129
 317 1 6.3011279 16.766065 12.731318
 318 1 37.04525 14.466164 0.0934588
 319 1 47.366285 16.377415 2.6416586
 320 1 7.894385 5.0309816 2.2201459
 321 1 40.359708 11.276919 0.2504311
 322 1 45.473767 17.338096 0.0435092
 323 1 41.412335 12.62418 0.4150632
 324 1 42.524926 6.4360667 5.4171087
 325 1 41.895822 8.2241392 21.993052
 326 1 10.750677 2.5849364 16.988204
 327 1 3.5482521 0.2379769 6.85846
 328 1 3.7774082 2.7993457 19.893972
 329 1 4.6494987 17.440343 2.8292084
 330 1 42.648569 13.083676 13.731462
 331 1 47.371842 10.574254 5.4775014
 332 1 4.7366421 6.0613298 21.834423
 333 1 1.6762488 3.9052013 0.0955300
 334 1 38.448825 0.4148575 19.180148
 335 1 7.7091494 6.8770145 18.506809
 336 1 38.449801 7.1508252 12.82616
 337 1 1.1871933 6.9575558 1.1711214
 338 1 47.414168 3.9371172 11.295731
 339 1 6.651938 10.202189 17.488408
 340 1 46.715832 13.39719 5.9530645
 341 1 37.768045 12.481518 3.7776751
 342 1 0.9335062 17.589142 2.9536947
 343 1 43.424885 0.1582761 7.8651791
 344 1 4.1115226 11.025091 1.9807063
 345 1 39.328635 6.0156297 15.760093
 346 1 39.627943 13.606689 7.8023315
 347 1 44.729566 12.176074 0.1821594
 348 1 45.992058 15.003418 12.368206
 349 1 39.557779 17.557964 21.291531
 350 1 38.035165 5.0296846 13.523732
 351 1 47.715601 9.2484505 18.541795
 352 1 44.092864 5.2712419 14.390934
 353 1 9.6243223 14.526759 7.4739455
 354 1 10.078983 6.9044891 6.4128653
 355 1 39.159897 16.852406 6.8942966
 356 1 42.082777 0.0864186 6.7662094
 357 1 40.903282 3.9382655 5.262049
 358 1 37.877082 13.762665 0.0340925
 359 1 38.274405 3.3196263 12.144926
 360 1 7.3941951 17.387217 16.93596
 361 1 44.304836 11.466529 9.2855985
 362 1 39.936437 15.983407 21.033794
 363 1 1.1496805 16.051278 7.3691858
 364 1 8.4062296 6.4432947 14.072115
 365 1 40.665704 7.9447597 14.306091
 366 1 39.134214 1.8710633 2.8855536
 367 1 47.489458 17.906913 0.7643032
 368 1 8.207382 8.7830076 7.5645158
 369 1 0.6154033 16.336844 16.981378
 370 1 44.297196 11.042297 0.8573552
 371 1 37.474036 17.311024 20.769756
 372 1 45.987716 14.406688 20.856544
 373 1 0.5100124 9.7623364 10.831979
 374 1 37.603726 8.0140436 16.8825
 375 1 38.260274 3.1502506 3.295151
 376 1 7.5388566 4.4402012 0.6773120
 377 1 4.9321732 8.0281981 5.4948552
 378 1 45.083712 14.654034 18.813386
 379 1 9.1910897 12.525997 1.9685542
 380 1 3.1186243 9.159211 3.683915
 381 1 10.747986 11.993894 0.5642739
 382 1 5.1278767 1.9516426 16.898024
 383 1 1.8225286 12.96668 11.866988
 384 1 8.9414947 4.6280701 16.963274
 385 1 46.145994 11.61405 15.843874
 386 1 40.25682 5.8813189 0.5206457
 387 1 47.088819 12.07474 10.660259
 388 1 43.136918 1.9172562 17.779491
 389 1 6.3387 0.5938700 15.650819
 390 1 43.478852 14.363591 0.9370699
 391 1 46.208083 14.910952 9.6541872
 392 1 42.741615 2.5419558 8.4507825
 393 1 7.6436303 6.3882095 3.7068957
 394 1 46.160584 1.3271146 5.181946
 395 1 1.7185272 6.0936187 19.372948
 396 1 44.57789 6.9944506 10.209193
 397 1 43.804154 4.6414029 17.229567
 398 1 10.178764 2.2816257 9.5173545
 399 1 45.207788 6.7953006 20.555411
 400 1 41.772518 1.3835563 1.512488
 401 1 0.0771756 14.555916 5.8542483
 402 1 2.2557462 2.0159268 14.628061
 403 1 5.1672476 11.027926 4.7657509
 404 1 43.965452 9.3329398 19.088445
 405 1 1.7195679 3.3666526 13.6314
 406 1 5.3424616 7.3281256 14.013789
 407 1 8.8704433 0.0066609 9.4328014
 408 1 45.719615 14.72565 7.1775069
 409 1 37.318911 16.687626 1.1715756
 410 1 6.2791997 5.9370372 21.057024
 411 1 46.329637 10.484286 13.949629
 412 1 39.560183 15.011874 7.0964914
 413 1 8.4864867 4.0207526 8.6022419
 414 1 3.1476916 3.1391862 18.42053
 415 1 42.880719 0.4839381 12.036866
 416 1 45.873142 5.6557047 5.1574045
 417 1 43.559586 0.767876 13.21489
 418 1 0.2188895 13.507182 6.446393
 419 1 5.4832178 10.428406 10.465313
 420 1 3.199403 8.591448 4.726338
 421 1 40.389757 9.8468461 18.581899
 422 1 6.048322 10.780105 12.397706
 423 1 42.216414 2.2332917 20.601073
 424 1 9.0202178 4.1079363 4.5458515
 425 1 5.025567 10.563455 13.862896
 426 1 41.414082 17.693351 16.288012
 427 1 37.223382 11.347273 10.527963
 428 1 7.997648 7.2897265 20.775114
 429 1 3.5993334 12.746587 2.5159231
 430 1 5.0826922 0.7704339 21.377794
 431 1 8.0726117 10.24654 2.8377255
 432 1 37.930388 17.703838 5.7863017
 433 1 0.0802758 2.1655144 20.140099
 434 1 0.1932600 2.3348875 8.0567751
 435 1 41.359633 10.052773 3.4915668
 436 1 6.3711426 14.339669 12.933475
 437 1 6.7523056 10.685762 7.4039588
 438 1 38.707671 1.1053007 7.3640615
 439 1 37.342024 15.716042 21.023859
 440 1 7.9733822 1.2251805 16.975163
 441 1 42.900629 13.105139 5.8318999
 442 1 9.3786104 17.204981 18.588414
 443 1 10.990248 1.9541253 12.312397
 444 1 43.057025 1.6808506 2.5654056
 445 1 40.431185 2.4257593 13.628136
 446 1 7.6433029 16.195467 13.909579
 447 1 43.657833 16.324742 4.6380288
 448 1 0.3695662 10.842627 4.3335021
 449 1 45.320906 8.3021635 7.7853492
 450 1 2.8279104 15.485342 12.740122
 451 1 5.5343512 11.885964 3.7958779
 452 1 40.177458 12.902442 20.169752
 453 1 45.295769 11.066429 17.858221
 454 1 43.898807 11.261802 3.3439458
 455 1 7.883492 9.701553 15.734874
 456 1 3.8794299 4.4676217 1.634623
 457 1 10.706439 12.910649 11.315993
 458 1 47.162763 9.7303236 2.1712121
 459 1 3.4611022 2.0816804 4.8375427
 460 1 8.141216 11.061058 7.0057895
 461 1 46.08408 6.1538742 10.813637
 462 1 47.783946 5.8773218 18.764476
 463 1 10.369369 5.2997787 6.8830847
 464 1 6.0772428 2.2318822 18.96447
 465 1 45.900807 1.3659263 18.541067
 466 1 3.7483579 2.6987441 2.465662
 467 1 6.4177753 16.170017 4.3194473
 468 1 1.1498677 15.873533 15.175666
 469 1 47.118458 5.6794279 12.844904
 470 1 9.6398542 16.224145 7.3637489
 471 1 6.2338879 15.576048 8.3939143
 472 1 38.161509 4.6512756 7.362533
 473 1 2.3284335 14.578521 7.2077257
 474 1 42.805488 7.7257008 8.6671566
 475 1 10.502765 9.4575606 21.688765
 476 1 3.8804629 10.800595 3.4097703
 477 1 3.7640453 10.102088 11.799966
 478 1 46.033621 3.6750203 8.4183486
 479 1 43.312757 16.829245 1.3025898
 480 1 3.5602195 9.0481813 0.8418248
 481 1 9.592592 3.2523065 6.8754663
 482 1 7.0906242 15.230927 15.072629
 483 1 9.2071424 1.1385802 1.6080807
 484 1 39.401522 4.3336764 0.9697384
 485 1 40.125723 9.3597802 6.6572095
 486 1 40.986886 7.6162162 7.6452417
 487 1 10.011495 15.990501 0.3931593
 488 1 5.0495949 9.1820677 0.8300004
 489 1 2.5120789 12.336008 21.881784
 490 1 41.275254 12.730552 13.27936
 491 1 4.7294042 1.2259919 0.1617649
 492 1 4.4324382 9.9286296 6.4990642
 493 1 37.072005 15.671518 19.234144
 494 1 7.9907617 8.5379601 18.473408
 495 1 47.886556 11.459804 5.0679425
 496 1 1.9868288 1.3838539 9.7639644
 497 1 39.300669 16.931352 14.712419
 498 1 1.4064099 14.729416 0.2469543
 499 1 39.214669 6.8985158 16.64067
 500 1 46.375305 4.3059381 19.024599
 501 1 42.467805 0.8121063 14.444559
 502 1 4.4286789 5.6973398 1.1481619
 503 1 38.824858 13.725906 9.8734933
 504 1 6.5200758 17.333483 4.220218
 505 1 8.0707606 3.9163155 17.680433
 506 1 44.934837 7.7605236 5.510419
 507 1 3.9227897 8.9313669 14.638058
 508 1 6.2091429 11.784715 10.567185
 509 1 37.465888 15.507383 3.3325412
 510 1 9.103206 17.70156 16.489053
 511 1 47.861753 1.2375296 8.2675067
 512 1 5.3721792 9.6661961 17.864549
 513 1 0.0101862 11.830869 3.8494492
 514 1 9.1871848 12.997854 17.383755
 515 1 10.23517 11.712307 8.7345479
 516 1 9.6008679 17.042511 1.6735361
 517 1 45.784609 14.869835 14.983886
 518 1 40.184148 11.515041 8.994656
 519 1 43.340773 8.8487746 4.7831217
 520 1 41.902438 11.055886 1.4920368
 521 1 46.012989 6.5428805 7.5350147
 522 1 45.662684 7.9701597 16.208524
 523 1 39.217209 14.74884 19.679711
 524 1 37.348312 10.475135 9.5420767
 525 1 5.212024 11.693876 16.287334
 526 1 5.338086 3.1587631 12.13658
 527 1 2.6097937 10.861082 15.180599
 528 1 8.0752076 5.138243 9.9483573
 529 1 4.1648029 17.352756 17.434113
 530 1 46.120487 17.673627 20.928881
 531 1 3.7597582 12.281138 19.287965
 532 1 45.532919 16.559415 7.7267022
 533 1 5.9726442 3.683329 20.294836
 534 1 3.7455127 13.871535 1.9828348
 535 1 39.305114 9.2533193 8.6969415
 536 1 4.0244527 5.5498458 11.431635
 537 1 10.421377 6.3515939 13.729247
 538 1 9.3168648 0.9205245 6.3045989
 539 1 44.792747 4.7942501 21.986638
 540 1 1.3456951 5.8906818 17.178617
 541 1 8.8072225 7.074617 16.758583
 542 1 45.756654 15.374423 4.5338543
 543 1 7.0192444 5.5566752 9.7988177
 544 1 4.1485851 10.00271 0.9891210
 545 1 45.496861 13.189768 8.2170201
 546 1 45.438729 8.1442196 3.9343733
 547 1 42.599735 5.8324307 6.2949164
 548 1 40.287946 3.4688245 6.6868343
 549 1 10.195619 14.653551 21.968839
 550 1 43.827416 4.7673399 0.5408547
 551 1 3.2801948 11.677829 16.146929
 552 1 8.9993535 4.4562277 6.0770482
 553 1 0.1367419 11.590105 15.769079
 554 1 41.135134 17.512998 8.4386565
 555 1 6.1642624 15.261476 3.6993976
 556 1 39.033417 1.4306355 21.883276
 557 1 6.5382746 16.378902 19.558142
 558 1 47.375595 17.825862 9.8659278
 559 1 38.617311 14.953163 14.555094
 560 1 38.389149 2.3585697 20.226403
 561 1 5.9397921 15.80524 6.1891008
 562 1 3.3894119 3.8817786 5.722205
 563 1 5.9547692 14.618133 11.543507
 564 1 44.469203 9.5718845 6.2474808
 565 1 1.5324956 1.8212668 21.781356
 566 1 39.72609 15.584812 16.533136
 567 1 7.5558404 7.5015576 1.9860255
 568 1 4.9825867 13.451949 10.50326
 569 1 10.483191 0.8554278 13.21751
 570 1 1.5881342 13.474612 6.6916809
 571 1 40.520678 8.770105 20.114907
 572 1 42.562584 0.1089883 3.8385444
 573 1 6.6743241 9.0652529 17.936651
 574 1 0.5635731 14.79037 12.271374
 575 1 7.0184003 13.588128 6.5056582
 576 1 45.278607 1.1094217 9.8486118
 577 1 2.0946452 15.02554 10.158919
 578 1 0.6792778 15.878378 2.8013298
 579 1 5.7378299 7.0942375 8.0369361
 580 1 5.4356454 8.7719532 18.502405
 581 1 7.9641052 13.680003 19.102055
 582 1 40.427116 12.052774 17.140737
 583 1 47.233668 1.254451 6.0965703
 584 1 43.260435 11.040992 18.58763
 585 1 46.115931 9.9463531 0.8544033
 586 1 45.131236 17.745732 19.670746
 587 1 42.702279 3.6337925 3.3392078
 588 1 41.608687 2.8269845 11.778448
 589 1 1.9341945 13.268537 17.315432
 590 1 45.431382 17.544292 17.25589
 591 1 40.496637 3.95443 0.4271891
 592 1 8.2755987 6.3783537 6.5623176
 593 1 1.0077839 4.7216225 11.117237
 594 1 2.5797572 14.038237 19.425886
 595 1 40.839383 6.8627059 5.9555274
 596 1 10.405429 0.4048149 14.845983
 597 1 46.283292 13.551877 3.0617222
 598 1 42.709462 15.706059 7.7273025
 599 1 7.0645021 8.0019829 9.4039725
 600 1 43.011801 10.357448 15.523634
 601 1 42.949806 7.607276 13.24891
 602 1 40.111789 3.7668432 17.708682
 603 1 38.199679 7.8087465 2.9065276
 604 1 9.4043835 6.7480034 2.8313919
 605 1 10.263653 9.8037339 8.2053852
 606 1 8.6855203 9.847388 13.279655
 607 1 45.11404 4.6929856 16.199205
 608 1 40.803234 8.0316572 9.7864159
 609 1 0.0578159 12.607435 11.042194
 610 1 47.265713 4.3123025 6.4278716
 611 1 1.1101208 5.4046425 21.526664
 612 1 9.9690211 2.9348679 18.57921
 613 1 6.1750847 10.598011 5.3730772
 614 1 4.7126585 13.159842 17.883735
 615 1 42.264522 9.0012573 13.367379
 616 1 41.733787 0.7458653 13.175649
 617 1 40.873468 17.26476 19.707385
 618 1 10.723408 15.814564 10.387582
 619 1 46.493869 13.053327 1.6234542
 620 1 2.3459157 3.0474533 15.743568
 621 1 38.5665 6.0728094 19.526972
 622 1 10.363868 10.779428 10.992927
 623 1 1.8895346 12.431948 6.7844197
 624 1 41.165929 11.239892 21.114069
 625 1 3.8056535 3.8549583 0.3341264
 626 1 2.5815509 5.9908377 9.3288869
 627 1 37.370752 5.3595283 16.961959
 628 1 41.883303 2.8864843 9.4152464
 629 1 47.832319 3.718424 13.902676
 630 1 42.906731 12.412476 19.875264
 631 1 39.580014 15.720918 8.3548842
 632 1 7.6305137 4.0507801 9.8319063
 633 1 5.9008876 13.516191 3.6606267
 634 1 39.659905 12.302164 1.5906077
 635 1 9.9418061 7.0205057 19.45742
 636 1 6.5070074 0.7667339 0.9435842
 637 1 6.035749 11.96404 15.190706
 638 1 40.842888 14.298151 6.1256867
 639 1 44.83511 4.9874944 0.0530767
 640 1 3.201479 5.9193879 17.835434
 641 1 0.0028907 2.8690624 9.0958809
 642 1 3.6248094 6.9285023 6.6768296
 643 1 43.722451 2.3617281 4.9724894
 644 1 43.805998 12.005402 14.80642
 645 1 4.8911517 11.276117 9.8580721
 646 1 7.0555138 2.0710693 16.90734
 647 1 7.0733701 5.7599493 16.346797
 648 1 10.843915 12.049346 18.785838
 649 1 42.519668 16.818224 20.221572
 650 1 10.820396 9.326896 2.0600653
 651 1 1.7587724 4.6719677 18.220307
 652 1 2.7113846 15.910243 16.342466
 653 1 44.46557 15.57906 10.093436
 654 1 43.070722 6.8207525 7.1673914
 655 1 6.6005107 14.416282 0.8865038
 656 1 3.3325794 8.6390046 12.011043
 657 1 41.641357 3.9148317 9.2344483
 658 1 47.299864 1.9136838 10.284226
 659 1 10.53821 1.4457491 20.250513
 660 1 38.351634 17.73036 9.3489709
 661 1 41.634626 0.5383853 17.391628
 662 1 10.996274 4.2094048 19.760825
 663 1 9.803324 5.7578316 16.910471
 664 1 43.662309 0.1406054 19.83417
 665 1 10.93106 10.126668 5.7859857
 666 1 9.2274393 17.058435 21.394244
 667 1 7.2992733 11.111649 3.4281676
 668 1 9.3772085 16.153863 20.447683
 669 1 0.5277086 7.5868023 8.9939338
 670 1 2.1656002 17.272639 15.164621
 671 1 40.460754 13.520054 16.097573
 672 1 43.559375 10.563458 0.0369270
 673 1 6.6520078 0.4208189 17.034551
 674 1 9.099104 15.650295 15.722423
 675 1 45.649775 7.5189807 14.378457
 676 1 39.829977 11.264608 2.4315271
 677 1 45.172012 0.5363805 8.696406
 678 1 4.0426563 15.004877 18.771625
 679 1 4.7437925 4.0713624 19.238257
 680 1 44.971282 7.3564445 21.712692
 681 1 39.401711 11.069348 20.441657
 682 1 43.728373 6.0578367 19.103486
 683 1 8.19401 0.1933982 18.509533
 684 1 47.918987 10.584965 2.4544185
 685 1 46.163216 8.9298561 17.391176
 686 1 10.737788 15.323211 8.552008
 687 1 8.2601242 6.2645176 1.4196126
 688 1 39.301763 0.2924874 11.039645
 689 1 1.544647 4.4146119 20.892127
 690 1 5.3053605 4.8578641 9.2564742
 691 1 44.567392 8.6851004 16.981815
 692 1 37.572221 10.54409 4.4537987
 693 1 38.800309 10.550633 18.422865
 694 1 2.5250207 13.657936 14.101853
 695 1 1.172946 4.3364187 14.180414
 696 1 37.549804 14.385954 14.773049
 697 1 6.8665479 13.192179 4.902976
 698 1 44.777766 5.584454 6.3452628
 699 1 9.1618657 10.933002 11.990342
 700 1 41.895855 4.3269801 6.972996
 701 1 40.893034 12.199531 8.2809602
 702 1 47.088179 3.397701 14.679721
 703 1 6.5776001 17.751516 15.787172
 704 1 2.4848556 5.2177205 4.3838935
 705 1 37.178043 16.45936 17.904929
 706 1 6.4636455 10.209811 15.887672
 707 1 39.228971 12.454398 0.2641381
 708 1 41.89004 0.4612478 5.4327644
 709 1 3.4446353 8.3454017 19.222508
 710 1 40.2572 10.293229 15.743568
 711 1 8.7370005 12.144225 11.467595
 712 1 41.831911 6.6996145 2.1385486
 713 1 2.6324869 15.335394 6.2841012
 714 1 44.473082 9.6589399 11.548613
 715 1 42.403806 5.6537606 8.9198068
 716 1 42.984292 9.704618 17.332658
 717 1 3.7286859 0.3048414 0.2869358
 718 1 39.281657 7.7165015 8.8397384
 719 1 46.619794 1.989001 21.711289
 720 1 46.813386 16.547451 16.597407
 721 1 46.909278 10.010968 15.011777
 722 1 37.832273 17.23232 21.986531
 723 1 2.6429722 2.2823622 11.306692
 724 1 40.11768 10.406326 17.052504
 725 1 5.5984721 6.873163 4.511104
 726 1 46.132762 3.4871204 11.315692
 727 1 4.9483056 15.148427 14.070262
 728 1 37.556022 8.8342252 1.2091581
 729 1 38.928005 8.447053 5.6026383
 730 1 7.8939922 1.8917996 1.6665305
 731 1 38.123276 0.0697263 20.504636
 732 1 45.791315 0.1304629 16.189775
 733 1 42.686504 4.980582 11.039685
 734 1 3.0654425 9.1789438 7.9998399
 735 1 43.070926 5.3697714 16.508785
 736 1 5.5797069 0.4942864 18.098435
 737 1 10.350528 6.8751995 15.735188
 738 1 38.306723 16.124331 14.601191
 739 1 41.839218 12.322667 18.792614
 740 1 41.229061 8.1541605 3.4086923
 741 1 47.544558 15.866712 3.8583437
 742 1 1.4356598 16.001944 9.9671166
 743 1 42.697273 9.1431791 9.9683326
 744 1 0.5428664 6.9377965 17.303865
 745 1 44.957241 2.4100235 13.072698
 746 1 46.897953 0.8183703 15.292352
 747 1 44.616975 2.0338804 17.045707
 748 1 43.806981 10.237804 14.655902
 749 1 5.8837051 6.1836153 18.006084
 750 1 47.619725 5.3732913 4.9249698
 751 1 8.1351825 17.865718 7.0740561
 752 1 43.753075 8.582026 0.0490247
 753 1 40.421997 13.441276 4.4684342
 754 1 38.519193 5.6611672 9.2841551
 755 1 8.9708938 14.785839 10.794243
 756 1 37.973606 14.394077 6.5104323
 757 1 44.688366 6.144388 17.143769
 758 1 2.9953552 17.731549 8.2774937
 759 1 1.2815005 17.586067 8.6590503
 760 1 47.934211 4.2076667 10.167384
 761 1 46.868606 2.3368509 2.5402261
 762 1 38.828948 11.646134 7.3626575
 763 1 1.7248205 8.4809595 3.1054546
 764 1 47.40846 9.5170602 9.9786138
 765 1 38.433817 1.8434559 1.0673392
 766 1 5.8008715 1.3157605 8.74481
 767 1 8.4915512 14.875534 5.849689
 768 1 42.059958 10.882307 8.663686
 769 1 3.5684034 5.4445042 3.7402212
 770 1 0.0000050 1.2518403 10.498003
 771 1 3.7728481 5.0852886 9.3390063
 772 1 36.980707 17.931962 4.1560972
 773 1 43.985333 8.3682919 15.002737
 774 1 9.9852962 14.570346 5.7382117
 775 1 1.1864024 8.4674186 4.511473
 776 1 44.08548 10.30437 12.977186
 777 1 38.445715 9.865946 0.0692969
 778 1 3.6901882 6.8751457 16.129075
 779 1 10.828281 5.8326495 15.915981
 780 1 7.3137331 3.3013472 13.064439
 781 1 44.254311 13.762182 21.688679
 782 1 5.3895409 0.3723009 16.644431
 783 1 5.1749075 17.012857 5.5734788
 784 1 5.5105649 16.262798 17.717664
 785 1 36.859997 14.804068 18.057431
 786 1 3.5247721 10.623468 5.5182539
 787 1 0.5553918 17.122334 6.3038652
 788 1 46.515449 3.1766216 0.6389587
 789 1 44.972351 3.3552274 5.9058632
 790 1 10.339605 13.853289 1.926026
 791 1 47.695666 17.052617 11.260191
 792 1 2.204348 1.6975126 20.278117
 793 1 2.4950082 14.925492 1.5452408
 794 1 4.7369669 0.1481860 13.855531
 795 1 0.2953385 16.235279 0.8006543
 796 1 3.8397586 14.57291 8.1561116
 797 1 9.2362175 14.269164 8.9970651
 798 1 37.970399 11.935038 18.063328
 799 1 1.9956228 16.234524 6.7046127
 800 1 6.9052755 12.956075 12.057864
 801 1 38.843555 8.9864311 2.3191416
 802 1 1.0814079 5.8264062 3.2854068
 803 1 7.3737947 7.8350637 6.8755228
 804 1 38.140586 14.064583 8.3984443
 805 1 38.761468 6.824816 11.603965
 806 1 45.267494 12.55678 6.5438266
 807 1 9.329591 16.885934 17.377727
 808 1 8.988587 6.4122265 8.6440241
 809 1 39.160027 7.2239092 0.4853265
 810 1 38.718165 16.897659 13.492238
 811 1 40.8415 3.5507286 4.1357661
 812 1 40.707832 4.4267119 18.338911
 813 1 4.2881277 3.609515 15.559611
 814 1 44.945943 2.5917406 19.544122
 815 1 45.020354 12.040914 20.258353
 816 1 44.480714 1.5016469 0.7554337
 817 1 8.1339983 16.474845 6.3104415